(written by ASE)

3242 atoms
3 atom types

0.0      60.347999999999999  xlo xhi
0.0      59.630000000000003  ylo yhi
0.0                      30  zlo zhi

Masses

1      12.010999996910238 # C
2      1.0079999997406976 # H
3      15.998999995884349 # O

Atoms # atomic

     1   1                       0                       0                       0
     2   1                       0      1.4179999999999999                       0
     3   1                   1.228      2.1269999999999993                       0
     4   1                   1.228      3.5449999999999999                       0
     5   1                       0      4.2539999999999987                       0
     6   1                       0      5.6719999999999997                       0
     7   1                   1.228      6.3809999999999993                       0
     8   1                   1.228      7.7989999999999995                       0
     9   1                       0      8.5079999999999973                       0
    10   1                       0      9.9259999999999984                       0
    11   1                   1.228      10.634999999999998                       0
    12   1                   1.228      12.052999999999999                       0
    13   1                       0      12.761999999999999                       0
    14   1                       0      14.179999999999998                       0
    15   1                   1.228      14.888999999999999                       0
    16   1                   1.228      16.306999999999999                       0
    17   1                       0      17.015999999999995                       0
    18   1                       0      18.433999999999997                       0
    19   1                   1.228      19.142999999999997                       0
    20   1                   1.228                  20.561                       0
    21   1                       0      21.269999999999996                       0
    22   1                       0      22.687999999999995                       0
    23   1                   1.228      23.396999999999995                       0
    24   1                   1.228      24.814999999999994                       0
    25   1                       0      25.523999999999997                       0
    26   1                       0      26.941999999999993                       0
    27   1                   1.228      27.650999999999996                       0
    28   1                   1.228      29.068999999999992                       0
    29   1                       0      29.777999999999999                       0
    30   1                       0      31.195999999999998                       0
    31   1                   1.228      31.904999999999998                       0
    32   1                   1.228                  33.323                       0
    33   1                       0      34.031999999999989                       0
    34   1                       0      35.449999999999996                       0
    35   1                   1.228      36.158999999999999                       0
    36   1                   1.228      37.576999999999998                       0
    37   1                       0      38.285999999999994                       0
    38   1                       0      39.703999999999994                       0
    39   1                   1.228      40.412999999999997                       0
    40   1                   1.228      41.830999999999996                       0
    41   1                       0      42.539999999999992                       0
    42   1                       0      43.957999999999991                       0
    43   1                   1.228      44.666999999999994                       0
    44   1                   1.228      46.084999999999994                       0
    45   1                       0      46.793999999999997                       0
    46   1                       0      48.211999999999996                       0
    47   1                   1.228      48.920999999999999                       0
    48   1                   2.456                       0                       0
    49   1                   2.456      1.4179999999999999                       0
    50   1      3.6840000000000002      2.1269999999999993                       0
    51   1      3.6840000000000002      3.5449999999999999                       0
    52   1                   2.456      4.2539999999999987                       0
    53   1                   2.456      5.6719999999999997                       0
    54   1      3.6840000000000002      6.3809999999999993                       0
    55   1      3.6840000000000002      7.7989999999999995                       0
    56   1                   2.456      8.5079999999999973                       0
    57   1                   2.456      9.9259999999999984                       0
    58   1      3.6840000000000002      10.634999999999998                       0
    59   1      3.6840000000000002      12.052999999999999                       0
    60   1                   2.456      12.761999999999999                       0
    61   1                   2.456      14.179999999999998                       0
    62   1      3.6840000000000002      14.888999999999999                       0
    63   1      3.6840000000000002      16.306999999999999                       0
    64   1                   2.456      17.015999999999995                       0
    65   1                   2.456      18.433999999999997                       0
    66   1      3.6840000000000002      19.142999999999997                       0
    67   1      3.6840000000000002                  20.561                       0
    68   1                   2.456      21.269999999999996                       0
    69   1                   2.456      22.687999999999995                       0
    70   1      3.6840000000000002      23.396999999999995                       0
    71   1      3.6840000000000002      24.814999999999994                       0
    72   1                   2.456      25.523999999999997                       0
    73   1                   2.456      26.941999999999993                       0
    74   1      3.6840000000000002      27.650999999999996                       0
    75   1      3.6840000000000002      29.068999999999992                       0
    76   1                   2.456      29.777999999999999                       0
    77   1                   2.456      31.195999999999998                       0
    78   1      3.6840000000000002      31.904999999999998                       0
    79   1      3.6840000000000002                  33.323                       0
    80   1                   2.456      34.031999999999989                       0
    81   1                   2.456      35.449999999999996                       0
    82   1      3.6840000000000002      36.158999999999999                       0
    83   1      3.6840000000000002      37.576999999999998                       0
    84   1                   2.456      38.285999999999994                       0
    85   1                   2.456      39.703999999999994                       0
    86   1      3.6840000000000002      40.412999999999997                       0
    87   1      3.6840000000000002      41.830999999999996                       0
    88   1                   2.456      42.539999999999992                       0
    89   1                   2.456      43.957999999999991                       0
    90   1      3.6840000000000002      44.666999999999994                       0
    91   1      3.6840000000000002      46.084999999999994                       0
    92   1                   2.456      46.793999999999997                       0
    93   1                   2.456      48.211999999999996                       0
    94   1      3.6840000000000002      48.920999999999999                       0
    95   1      4.9119999999999999                       0                       0
    96   1      4.9119999999999999      1.4179999999999999                       0
    97   1      6.1399999999999997      2.1269999999999993                       0
    98   1      6.1399999999999997      3.5449999999999999                       0
    99   1      4.9119999999999999      4.2539999999999987                       0
   100   1      4.9119999999999999      5.6719999999999997                       0
   101   1      6.1399999999999997      6.3809999999999993                       0
   102   1      6.1399999999999997      7.7989999999999995                       0
   103   1      4.9119999999999999      8.5079999999999973                       0
   104   1      4.9119999999999999      9.9259999999999984                       0
   105   1      6.1399999999999997      10.634999999999998                       0
   106   1      6.1399999999999997      12.052999999999999                       0
   107   1      4.9119999999999999      12.761999999999999                       0
   108   1      4.9119999999999999      14.179999999999998                       0
   109   1      6.1399999999999997      14.888999999999999                       0
   110   1      6.1399999999999997      16.306999999999999                       0
   111   1      4.9119999999999999      17.015999999999995                       0
   112   1      4.9119999999999999      18.433999999999997                       0
   113   1      6.1399999999999997      19.142999999999997                       0
   114   1      6.1399999999999997                  20.561                       0
   115   1      4.9119999999999999      21.269999999999996                       0
   116   1      4.9119999999999999      22.687999999999995                       0
   117   1      6.1399999999999997      23.396999999999995                       0
   118   1      6.1399999999999997      24.814999999999994                       0
   119   1      4.9119999999999999      25.523999999999997                       0
   120   1      4.9119999999999999      26.941999999999993                       0
   121   1      6.1399999999999997      27.650999999999996                       0
   122   1      6.1399999999999997      29.068999999999992                       0
   123   1      4.9119999999999999      29.777999999999999                       0
   124   1      4.9119999999999999      31.195999999999998                       0
   125   1      6.1399999999999997      31.904999999999998                       0
   126   1      6.1399999999999997                  33.323                       0
   127   1      4.9119999999999999      34.031999999999989                       0
   128   1      4.9119999999999999      35.449999999999996                       0
   129   1      6.1399999999999997      36.158999999999999                       0
   130   1      6.1399999999999997      37.576999999999998                       0
   131   1      4.9119999999999999      38.285999999999994                       0
   132   1      4.9119999999999999      39.703999999999994                       0
   133   1      6.1399999999999997      40.412999999999997                       0
   134   1      6.1399999999999997      41.830999999999996                       0
   135   1      4.9119999999999999      42.539999999999992                       0
   136   1      4.9119999999999999      43.957999999999991                       0
   137   1      6.1399999999999997      44.666999999999994                       0
   138   1      6.1399999999999997      46.084999999999994                       0
   139   1      4.9119999999999999      46.793999999999997                       0
   140   1      4.9119999999999999      48.211999999999996                       0
   141   1      6.1399999999999997      48.920999999999999                       0
   142   1      7.3680000000000003                       0                       0
   143   1      7.3680000000000003      1.4179999999999999                       0
   144   1      8.5960000000000001      2.1269999999999993                       0
   145   1      8.5960000000000001      3.5449999999999999                       0
   146   1      7.3680000000000003      4.2539999999999987                       0
   147   1      7.3680000000000003      5.6719999999999997                       0
   148   1      8.5960000000000001      6.3809999999999993                       0
   149   1      8.5960000000000001      7.7989999999999995                       0
   150   1      7.3680000000000003      8.5079999999999973                       0
   151   1      7.3680000000000003      9.9259999999999984                       0
   152   1      8.5960000000000001      10.634999999999998                       0
   153   1      8.5960000000000001      12.052999999999999                       0
   154   1      7.3680000000000003      12.761999999999999                       0
   155   1      7.3680000000000003      14.179999999999998                       0
   156   1      8.5960000000000001      14.888999999999999                       0
   157   1      8.5960000000000001      16.306999999999999                       0
   158   1      7.3680000000000003      17.015999999999995                       0
   159   1      7.3680000000000003      18.433999999999997                       0
   160   1      8.5960000000000001      19.142999999999997                       0
   161   1      8.5960000000000001                  20.561                       0
   162   1      7.3680000000000003      21.269999999999996                       0
   163   1      7.3680000000000003      22.687999999999995                       0
   164   1      8.5960000000000001      23.396999999999995                       0
   165   1      8.5960000000000001      24.814999999999994                       0
   166   1      7.3680000000000003      25.523999999999997                       0
   167   1      7.3680000000000003      26.941999999999993                       0
   168   1      8.5960000000000001      27.650999999999996                       0
   169   1      8.5960000000000001      29.068999999999992                       0
   170   1      7.3680000000000003      29.777999999999999                       0
   171   1      7.3680000000000003      31.195999999999998                       0
   172   1      8.5960000000000001      31.904999999999998                       0
   173   1      8.5960000000000001                  33.323                       0
   174   1      7.3680000000000003      34.031999999999989                       0
   175   1      7.3680000000000003      35.449999999999996                       0
   176   1      8.5960000000000001      36.158999999999999                       0
   177   1      8.5960000000000001      37.576999999999998                       0
   178   1      7.3680000000000003      38.285999999999994                       0
   179   1      7.3680000000000003      39.703999999999994                       0
   180   1      8.5960000000000001      40.412999999999997                       0
   181   1      8.5960000000000001      41.830999999999996                       0
   182   1      7.3680000000000003      42.539999999999992                       0
   183   1      7.3680000000000003      43.957999999999991                       0
   184   1      8.5960000000000001      44.666999999999994                       0
   185   1      8.5960000000000001      46.084999999999994                       0
   186   1      7.3680000000000003      46.793999999999997                       0
   187   1      7.3680000000000003      48.211999999999996                       0
   188   1      8.5960000000000001      48.920999999999999                       0
   189   1      9.8239999999999998                       0                       0
   190   1      9.8239999999999998      1.4179999999999999                       0
   191   1                  11.052      2.1269999999999993                       0
   192   1                  11.052      3.5449999999999999                       0
   193   1      9.8239999999999998      4.2539999999999987                       0
   194   1      9.8239999999999998      5.6719999999999997                       0
   195   1                  11.052      6.3809999999999993                       0
   196   1                  11.052      7.7989999999999995                       0
   197   1      9.8239999999999998      8.5079999999999973                       0
   198   1      9.8239999999999998      9.9259999999999984                       0
   199   1                  11.052      10.634999999999998                       0
   200   1                  11.052      12.052999999999999                       0
   201   1      9.8239999999999998      12.761999999999999                       0
   202   1      9.8239999999999998      14.179999999999998                       0
   203   1                  11.052      14.888999999999999                       0
   204   1                  11.052      16.306999999999999                       0
   205   1      9.8239999999999998      17.015999999999995                       0
   206   1      9.8239999999999998      18.433999999999997                       0
   207   1                  11.052      19.142999999999997                       0
   208   1                  11.052                  20.561                       0
   209   1      9.8239999999999998      21.269999999999996                       0
   210   1      9.8239999999999998      22.687999999999995                       0
   211   1                  11.052      23.396999999999995                       0
   212   1                  11.052      24.814999999999994                       0
   213   1      9.8239999999999998      25.523999999999997                       0
   214   1      9.8239999999999998      26.941999999999993                       0
   215   1                  11.052      27.650999999999996                       0
   216   1                  11.052      29.068999999999992                       0
   217   1      9.8239999999999998      29.777999999999999                       0
   218   1      9.8239999999999998      31.195999999999998                       0
   219   1                  11.052      31.904999999999998                       0
   220   1                  11.052                  33.323                       0
   221   1      9.8239999999999998      34.031999999999989                       0
   222   1      9.8239999999999998      35.449999999999996                       0
   223   1                  11.052      36.158999999999999                       0
   224   1                  11.052      37.576999999999998                       0
   225   1      9.8239999999999998      38.285999999999994                       0
   226   1      9.8239999999999998      39.703999999999994                       0
   227   1                  11.052      40.412999999999997                       0
   228   1                  11.052      41.830999999999996                       0
   229   1      9.8239999999999998      42.539999999999992                       0
   230   1      9.8239999999999998      43.957999999999991                       0
   231   1                  11.052      44.666999999999994                       0
   232   1                  11.052      46.084999999999994                       0
   233   1      9.8239999999999998      46.793999999999997                       0
   234   1      9.8239999999999998      48.211999999999996                       0
   235   1                  11.052      48.920999999999999                       0
   236   1      12.279999999999999                       0                       0
   237   1      12.279999999999999      1.4179999999999999                       0
   238   1      13.507999999999999      2.1269999999999993                       0
   239   1      13.507999999999999      3.5449999999999999                       0
   240   1      12.279999999999999      4.2539999999999987                       0
   241   1      12.279999999999999      5.6719999999999997                       0
   242   1      13.507999999999999      6.3809999999999993                       0
   243   1      13.507999999999999      7.7989999999999995                       0
   244   1      12.279999999999999      8.5079999999999973                       0
   245   1      12.279999999999999      9.9259999999999984                       0
   246   1      13.507999999999999      10.634999999999998                       0
   247   1      13.507999999999999      12.052999999999999                       0
   248   1      12.279999999999999      12.761999999999999                       0
   249   1      12.279999999999999      14.179999999999998                       0
   250   1      13.507999999999999      14.888999999999999                       0
   251   1      13.507999999999999      16.306999999999999                       0
   252   1      12.279999999999999      17.015999999999995                       0
   253   1      12.279999999999999      18.433999999999997                       0
   254   1      13.507999999999999      19.142999999999997                       0
   255   1      13.507999999999999                  20.561                       0
   256   1      12.279999999999999      21.269999999999996                       0
   257   1      12.279999999999999      22.687999999999995                       0
   258   1      13.507999999999999      23.396999999999995                       0
   259   1      13.507999999999999      24.814999999999994                       0
   260   1      12.279999999999999      25.523999999999997                       0
   261   1      12.279999999999999      26.941999999999993                       0
   262   1      13.507999999999999      27.650999999999996                       0
   263   1      13.507999999999999      29.068999999999992                       0
   264   1      12.279999999999999      29.777999999999999                       0
   265   1      12.279999999999999      31.195999999999998                       0
   266   1      13.507999999999999      31.904999999999998                       0
   267   1      13.507999999999999                  33.323                       0
   268   1      12.279999999999999      34.031999999999989                       0
   269   1      12.279999999999999      35.449999999999996                       0
   270   1      13.507999999999999      36.158999999999999                       0
   271   1      13.507999999999999      37.576999999999998                       0
   272   1      12.279999999999999      38.285999999999994                       0
   273   1      12.279999999999999      39.703999999999994                       0
   274   1      13.507999999999999      40.412999999999997                       0
   275   1      13.507999999999999      41.830999999999996                       0
   276   1      12.279999999999999      42.539999999999992                       0
   277   1      12.279999999999999      43.957999999999991                       0
   278   1      13.507999999999999      44.666999999999994                       0
   279   1      13.507999999999999      46.084999999999994                       0
   280   1      12.279999999999999      46.793999999999997                       0
   281   1      12.279999999999999      48.211999999999996                       0
   282   1      13.507999999999999      48.920999999999999                       0
   283   1      14.736000000000001                       0                       0
   284   1      14.736000000000001      1.4179999999999999                       0
   285   1      15.964000000000002      2.1269999999999993                       0
   286   1      15.964000000000002      3.5449999999999999                       0
   287   1      14.736000000000001      4.2539999999999987                       0
   288   1      14.736000000000001      5.6719999999999997                       0
   289   1      15.964000000000002      6.3809999999999993                       0
   290   1      15.964000000000002      7.7989999999999995                       0
   291   1      14.736000000000001      8.5079999999999973                       0
   292   1      14.736000000000001      9.9259999999999984                       0
   293   1      15.964000000000002      10.634999999999998                       0
   294   1      15.964000000000002      12.052999999999999                       0
   295   1      14.736000000000001      12.761999999999999                       0
   296   1      14.736000000000001      14.179999999999998                       0
   297   1      15.964000000000002      14.888999999999999                       0
   298   1      15.964000000000002      16.306999999999999                       0
   299   1      14.736000000000001      17.015999999999995                       0
   300   1      14.736000000000001      18.433999999999997                       0
   301   1      15.964000000000002      19.142999999999997                       0
   302   1      15.964000000000002                  20.561                       0
   303   1      14.736000000000001      21.269999999999996                       0
   304   1      14.736000000000001      22.687999999999995                       0
   305   1      15.964000000000002      23.396999999999995                       0
   306   1      15.964000000000002      24.814999999999994                       0
   307   1      14.736000000000001      25.523999999999997                       0
   308   1      14.736000000000001      26.941999999999993                       0
   309   1      15.964000000000002      27.650999999999996                       0
   310   1      15.964000000000002      29.068999999999992                       0
   311   1      14.736000000000001      29.777999999999999                       0
   312   1      14.736000000000001      31.195999999999998                       0
   313   1      15.964000000000002      31.904999999999998                       0
   314   1      15.964000000000002                  33.323                       0
   315   1      14.736000000000001      34.031999999999989                       0
   316   1      14.736000000000001      35.449999999999996                       0
   317   1      15.964000000000002      36.158999999999999                       0
   318   1      15.964000000000002      37.576999999999998                       0
   319   1      14.736000000000001      38.285999999999994                       0
   320   1      14.736000000000001      39.703999999999994                       0
   321   1      15.964000000000002      40.412999999999997                       0
   322   1      15.964000000000002      41.830999999999996                       0
   323   1      14.736000000000001      42.539999999999992                       0
   324   1      14.736000000000001      43.957999999999991                       0
   325   1      15.964000000000002      44.666999999999994                       0
   326   1      15.964000000000002      46.084999999999994                       0
   327   1      14.736000000000001      46.793999999999997                       0
   328   1      14.736000000000001      48.211999999999996                       0
   329   1      15.964000000000002      48.920999999999999                       0
   330   1                  17.192                       0                       0
   331   1                  17.192      1.4179999999999999                       0
   332   1      18.420000000000002      2.1269999999999993                       0
   333   1      18.420000000000002      3.5449999999999999                       0
   334   1                  17.192      4.2539999999999987                       0
   335   1                  17.192      5.6719999999999997                       0
   336   1      18.420000000000002      6.3809999999999993                       0
   337   1      18.420000000000002      7.7989999999999995                       0
   338   1                  17.192      8.5079999999999973                       0
   339   1                  17.192      9.9259999999999984                       0
   340   1      18.420000000000002      10.634999999999998                       0
   341   1      18.420000000000002      12.052999999999999                       0
   342   1                  17.192      12.761999999999999                       0
   343   1                  17.192      14.179999999999998                       0
   344   1      18.420000000000002      14.888999999999999                       0
   345   1      18.420000000000002      16.306999999999999                       0
   346   1                  17.192      17.015999999999995                       0
   347   1                  17.192      18.433999999999997                       0
   348   1      18.420000000000002      19.142999999999997                       0
   349   1      18.420000000000002                  20.561                       0
   350   1                  17.192      21.269999999999996                       0
   351   1                  17.192      22.687999999999995                       0
   352   1      18.420000000000002      23.396999999999995                       0
   353   1      18.420000000000002      24.814999999999994                       0
   354   1                  17.192      25.523999999999997                       0
   355   1                  17.192      26.941999999999993                       0
   356   1      18.420000000000002      27.650999999999996                       0
   357   1      18.420000000000002      29.068999999999992                       0
   358   1                  17.192      29.777999999999999                       0